3999
Atoms. Timestep: 0
1 2.39972 37.5997 37.5997
1 4.15983 4.16019 2.40025
1 4.15983 2.40025 4.16019
1 2.39972 4.16019 4.16019
1 5.91995 2.40026 2.40026
1 7.68003 4.16023 2.40028
1 7.68003 2.40028 4.16023
1 5.91994 4.16021 4.16021
1 9.44011 2.40029 2.40029
1 11.2001 4.16029 2.40031
1 11.2001 2.40031 4.16029
1 9.4401 4.16027 4.16027
1 12.9602 2.40031 2.40031
1 14.7201 4.16033 2.40034
1 14.7201 2.40034 4.16033
1 12.9602 4.16033 4.16033
1 16.4801 2.40033 2.40033
1 18.2401 4.16036 2.40035
1 18.2401 2.40035 4.16036
1 16.4801 4.16037 4.16037
1 20 2.40034 2.40034
1 21.7599 4.16036 2.40035
1 21.7599 2.40035 4.16036
1 20 4.16039 4.16039
1 23.5199 2.40033 2.40033
1 25.2799 4.16033 2.40034
1 25.2799 2.40034 4.16033
1 23.5199 4.16037 4.16037
1 27.0398 2.40031 2.40031
1 28.7999 4.16029 2.40031
1 28.7999 2.40031 4.16029
1 27.0398 4.16033 4.16033
1 30.5599 2.40029 2.40029
1 32.32 4.16023 2.40028
1 32.32 2.40028 4.16023
1 30.5599 4.16027 4.16027
1 34.0801 2.40026 2.40026
1 35.8402 4.16019 2.40025
1 35.8402 2.40025 4.16019
1 34.0801 4.16021 4.16021
1 2.39972 5.92013 2.40025
1 4.15982 7.68009 2.40026
1 4.15983 5.92014 4.16019
1 2.39972 7.68008 4.16018
1 5.91993 5.92016 2.40027
1 7.68 7.68015 2.40029
1 7.68002 5.92019 4.16024
1 5.91991 7.68011 4.16021
1 9.44009 5.92022 2.4003
1 11.2001 7.68023 2.40033
1 11.2001 5.92028 4.16032
1 9.44007 7.6802 4.16029
1 12.9601 5.9203 2.40034
1 14.7201 7.68032 2.40036
1 14.7201 5.92036 4.16038
1 12.9601 7.68031 4.16037
1 16.4801 5.92035 2.40036
1 18.24 7.68037 2.40037
1 18.2401 5.92041 4.16041
1 16.4801 7.6804 4.16041
1 20 5.92037 2.40037
1 21.76 7.68037 2.40037
1 21.7599 5.92041 4.16041
1 20 7.68042 4.16042
1 23.5199 5.92035 2.40036
1 25.2799 7.68032 2.40036
1 25.2799 5.92036 4.16038
1 23.5199 7.6804 4.16041
1 27.0399 5.9203 2.40034
1 28.7999 7.68023 2.40033
1 28.7999 5.92028 4.16032
1 27.0399 7.68031 4.16037
1 30.5599 5.92022 2.4003
1 32.32 7.68015 2.40029
1 32.32 5.92019 4.16024
1 30.5599 7.6802 4.16029
1 34.0801 5.92016 2.40027
1 35.8402 7.68009 2.40026
1 35.8402 5.92014 4.16019
1 34.0801 7.68011 4.16021
1 2.39972 9.44004 2.40025
1 4.1598 11.2 2.40026
1 4.15981 9.44005 4.16018
1 2.39972 11.2 4.16017
1 5.9199 9.44007 2.40027
1 7.67996 11.2001 2.4003
1 7.67998 9.44011 4.16025
1 5.91988 11.2 4.16021
1 9.44005 9.44015 2.40032
1 11.2001 11.2002 2.40035
1 11.2001 9.44023 4.16035
1 9.44003 11.2001 4.16031
1 12.9601 9.44025 2.40036
1 14.7201 11.2003 2.40035
1 14.7201 9.44034 4.16041
1 12.9601 11.2003 4.16039
1 16.4801 9.44033 2.40036
1 18.24 11.2003 2.40035
1 18.2401 9.44041 4.16042
1 16.4801 11.2003 4.16041
1 20 9.44037 2.40036
1 21.76 11.2003 2.40035
1 21.7599 9.44041 4.16042
1 20 11.2004 4.16041
1 23.5199 9.44033 2.40036
1 25.2799 11.2003 2.40035
1 25.2799 9.44034 4.16041
1 23.5199 11.2003 4.16041
1 27.0399 9.44025 2.40036
1 28.7999 11.2002 2.40035
1 28.7999 9.44023 4.16035
1 27.0399 11.2003 4.16039
1 30.56 9.44015 2.40032
1 32.32 11.2001 2.4003
1 32.32 9.44011 4.16025
1 30.56 11.2001 4.16031
1 34.0801 9.44007 2.40027
1 35.8402 11.2 2.40026
1 35.8402 9.44005 4.16018
1 34.0801 11.2 4.16021
1 2.39972 12.96 2.40025
1 4.15979 14.72 2.40026
1 4.15979 12.96 4.16017
1 2.39972 14.72 4.16015
1 5.91988 12.96 2.40028
1 7.67994 14.72 2.40031
1 7.67994 12.9601 4.16026
1 5.91985 14.72 4.1602
1 9.44 12.9601 2.40033
1 11.2 14.7201 2.40034
1 11.2001 12.9602 4.16037
1 9.44 14.7201 4.16032
1 12.96 12.9602 2.40035
1 14.72 14.7202 2.40033
1 14.7201 12.9603 4.1604
1 12.9601 14.7201 4.16039
1 16.48 12.9603 2.40034
1 18.24 14.7202 2.40031
1 18.24 12.9603 4.16039
1 16.48 14.7202 4.16038
1 20 12.9603 2.40033
1 21.76 14.7202 2.40031
1 21.76 12.9603 4.16039
1 20 14.7202 4.16036
1 23.52 12.9603 2.40034
1 25.28 14.7202 2.40033
1 25.2799 12.9603 4.1604
1 23.52 14.7202 4.16038
1 27.04 12.9602 2.40035
1 28.8 14.7201 2.40034
1 28.7999 12.9602 4.16037
1 27.0399 14.7201 4.16039
1 30.56 12.9601 2.40033
1 32.3201 14.72 2.40031
1 32.3201 12.9601 4.16026
1 30.56 14.7201 4.16032
1 34.0801 12.96 2.40028
1 35.8402 14.72 2.40026
1 35.8402 12.96 4.16017
1 34.0801 14.72 4.1602
1 2.39972 16.48 2.40025
1 4.15979 18.24 2.40026
1 4.15978 16.48 4.16016
1 2.39972 18.24 4.16015
1 5.91986 16.48 2.40029
1 7.67993 18.24 2.40032
1 7.67993 16.48 4.16027
1 5.91985 18.24 4.16021
1 9.43998 16.48 2.40033
1 11.2 18.24 2.40034
1 11.2 16.4801 4.16037
1 9.43999 18.24 4.16033
1 12.96 16.4801 2.40034
1 14.72 18.24 2.40032
1 14.72 16.4801 4.16039
1 12.96 18.24 4.1604
1 16.48 16.4801 2.40031
1 18.24 18.24 2.4003
1 18.24 16.4801 4.16035
1 16.48 18.24 4.16037
1 20 16.4801 2.4003
1 21.76 18.24 2.4003
1 21.76 16.4801 4.16035
1 20 18.24 4.16035
1 23.52 16.4801 2.40031
1 25.28 18.24 2.40032
1 25.28 16.4801 4.16039
1 23.52 18.24 4.16037
1 27.04 16.4801 2.40034
1 28.8 18.24 2.40034
1 28.8 16.4801 4.16037
1 27.04 18.24 4.1604
1 30.56 16.48 2.40033
1 32.3201 18.24 2.40032
1 32.3201 16.48 4.16027
1 30.56 18.24 4.16033
1 34.0801 16.48 2.40029
1 35.8402 18.24 2.40026
1 35.8402 16.48 4.16016
1 34.0802 18.24 4.16021
1 2.39972 20 2.40025
1 4.15979 21.76 2.40026
1 4.15978 20 4.16016
1 2.39972 21.76 4.16015
1 5.91987 20 2.40029
1 7.67995 21.76 2.40032
1 7.67993 20 4.16027
1 5.91985 21.76 4.1602
1 9.43999 20 2.40034
1 11.2 21.7599 2.40036
1 11.2 20 4.16039
1 9.44002 21.76 4.16035
1 12.96 20 2.40034
1 14.72 21.7599 2.40034
1 14.72 19.9999 4.16041
1 12.9601 21.7599 4.16043
1 16.48 20 2.40031
1 18.24 21.7599 2.40032
1 18.24 19.9999 4.16037
1 16.48 21.7598 4.16042
1 20 19.9999 2.4003
1 21.76 21.7599 2.40032
1 21.76 19.9999 4.16037
1 20 21.7598 4.16039
1 23.52 20 2.40031
1 25.28 21.7599 2.40034
1 25.28 19.9999 4.16041
1 23.52 21.7598 4.16042
1 27.04 20 2.40034
1 28.8 21.7599 2.40036
1 28.8 20 4.16039
1 27.0399 21.7599 4.16043
1 30.56 20 2.40034
1 32.3201 21.76 2.40032
1 32.3201 20 4.16027
1 30.56 21.76 4.16035
1 34.0801 20 2.40029
1 35.8402 21.76 2.40026
1 35.8402 20 4.16016
1 34.0801 21.76 4.1602
1 2.39972 23.52 2.40025
1 4.1598 25.28 2.40026
1 4.15978 23.52 4.16017
1 2.39972 25.28 4.16017
1 5.91988 23.52 2.40029
1 7.67998 25.2799 2.40032
1 7.67995 23.52 4.16027
1 5.91987 25.28 4.16021
1 9.44003 23.5199 2.40035
1 11.2001 25.2798 2.40037
1 11.2001 23.5199 4.16042
1 9.44005 25.2799 4.16034
1 12.9601 23.5199 2.40036
1 14.7201 25.2798 2.40038
1 14.7201 23.5198 4.16045
1 12.9602 25.2797 4.16047
1 16.48 23.5198 2.40035
1 18.24 25.2797 2.40037
1 18.24 23.5197 4.16044
1 16.4801 25.2797 4.16048
1 20 23.5198 2.40034
1 21.76 25.2797 2.40037
1 21.76 23.5197 4.16044
1 20 25.2796 4.16048
1 23.52 23.5198 2.40035
1 25.2799 25.2798 2.40038
1 25.2799 23.5198 4.16045
1 23.5199 25.2797 4.16048
1 27.0399 23.5199 2.40036
1 28.7999 25.2798 2.40037
1 28.7999 23.5199 4.16042
1 27.0398 25.2797 4.16047
1 30.56 23.5199 2.40035
1 32.32 25.2799 2.40032
1 32.32 23.52 4.16027
1 30.5599 25.2799 4.16034
1 34.0801 23.52 2.40029
1 35.8402 25.28 2.40026
1 35.8402 23.52 4.16017
1 34.0801 25.28 4.16021
1 2.39972 27.04 2.40026
1 4.15982 28.8 2.40026
1 4.1598 27.04 4.16018
1 2.39972 28.8 4.16018
1 5.9199 27.04 2.40028
1 7.68 28.7999 2.4003
1 7.67998 27.0399 4.16026
1 5.9199 28.7999 4.16021
1 9.44007 27.0399 2.40034
1 11.2001 28.7998 2.40036
1 11.2001 27.0398 4.16039
1 9.44008 28.7998 4.1603
1 12.9601 27.0398 2.40039
1 14.7201 28.7997 2.40039
1 14.7202 27.0396 4.16049
1 12.9602 28.7997 4.16042
1 16.4801 27.0397 2.40039
1 18.2401 28.7996 2.4004
1 18.2401 27.0396 4.1605
1 16.4801 28.7996 4.16049
1 20 27.0396 2.40039
1 21.7599 28.7996 2.4004
1 21.7599 27.0396 4.1605
1 20 28.7995 4.1605
1 23.5199 27.0397 2.40039
1 25.2799 28.7997 2.40039
1 25.2798 27.0396 4.16049
1 23.5199 28.7996 4.16049
1 27.0399 27.0398 2.40039
1 28.7999 28.7998 2.40036
1 28.7999 27.0398 4.16039
1 27.0398 28.7997 4.16042
1 30.5599 27.0399 2.40034
1 32.32 28.7999 2.4003
1 32.32 27.0399 4.16026
1 30.5599 28.7998 4.1603
1 34.0801 27.04 2.40028
1 35.8402 28.8 2.40026
1 35.8402 27.04 4.16018
1 34.0801 28.7999 4.16021
1 2.39972 30.5599 2.40025
1 4.15983 32.3199 2.40026
1 4.15982 30.5599 4.16019
1 2.39972 32.3199 4.16018
1 5.91993 30.5599 2.40027
1 7.68003 32.3199 2.40028
1 7.68001 30.5599 4.16024
1 5.91993 32.3199 4.1602
1 9.44009 30.5598 2.40032
1 11.2001 32.3198 2.40032
1 11.2001 30.5598 4.16032
1 9.44009 32.3198 4.16026
1 12.9602 30.5597 2.40036
1 14.7202 32.3197 2.40036
1 14.7202 30.5597 4.16041
1 12.9602 32.3197 4.16033
1 16.4801 30.5596 2.40039
1 18.2401 32.3197 2.40038
1 18.2401 30.5596 4.16046
1 16.4801 32.3197 4.16038
1 20 30.5596 2.40039
1 21.7599 32.3197 2.40038
1 21.7599 30.5596 4.16046
1 20 32.3196 4.16041
1 23.5199 30.5596 2.40039
1 25.2798 32.3197 2.40036
1 25.2798 30.5597 4.16041
1 23.5199 32.3197 4.16038
1 27.0398 30.5597 2.40036
1 28.7999 32.3198 2.40032
1 28.7999 30.5598 4.16032
1 27.0398 32.3197 4.16033
1 30.5599 30.5598 2.40032
1 32.32 32.3199 2.40028
1 32.32 30.5599 4.16024
1 30.5599 32.3198 4.16026
1 34.0801 30.5599 2.40027
1 35.8402 32.3199 2.40026
1 35.8402 30.5599 4.16019
1 34.0801 32.3199 4.1602
1 2.39972 34.0799 37.5997
1 4.15984 35.8398 2.40025
1 4.15983 34.0799 4.16019
1 2.39972 35.8398 4.16019
1 5.91994 34.0799 2.40026
1 7.68004 35.8398 2.40027
1 7.68003 34.0798 4.16023
1 5.91994 35.8398 4.16021
1 9.44011 34.0798 2.40029
1 11.2002 35.8398 2.4003
1 11.2001 34.0798 4.16028
1 9.4401 35.8398 4.16025
1 12.9602 34.0798 2.40032
1 14.7202 35.8398 2.40032
1 14.7201 34.0798 4.16033
1 12.9602 35.8398 4.1603
1 16.4801 34.0797 2.40034
1 18.2401 35.8398 2.40034
1 18.2401 34.0797 4.16035
1 16.4801 35.8398 4.16034
1 20 34.0797 2.40035
1 21.7599 35.8398 2.40034
1 21.7599 34.0797 4.16035
1 20 35.8398 4.16035
1 23.5199 34.0797 2.40034
1 25.2798 35.8398 2.40032
1 25.2799 34.0798 4.16033
1 23.5199 35.8398 4.16034
1 27.0398 34.0798 2.40032
1 28.7998 35.8398 2.4003
1 28.7999 34.0798 4.16028
1 27.0398 35.8398 4.1603
1 30.5599 34.0798 2.40029
1 32.32 35.8398 2.40027
1 32.32 34.0798 4.16023
1 30.5599 35.8398 4.16025
1 34.0801 34.0799 2.40026
1 35.8402 35.8398 2.40025
1 35.8402 34.0799 4.16019
1 34.0801 35.8398 4.16021
1 2.39972 2.40025 5.92013
1 4.15983 4.16019 5.92014
1 4.15982 2.40026 7.68009
1 2.39972 4.16018 7.68008
1 5.91993 2.40027 5.92016
1 7.68002 4.16024 5.92019
1 7.68 2.40029 7.68015
1 5.91991 4.16021 7.68011
1 9.44009 2.4003 5.92022
1 11.2001 4.16032 5.92028
1 11.2001 2.40033 7.68023
1 9.44007 4.16029 7.6802
1 12.9601 2.40034 5.9203
1 14.7201 4.16038 5.92036
1 14.7201 2.40036 7.68032
1 12.9601 4.16037 7.68031
1 16.4801 2.40036 5.92035
1 18.2401 4.16041 5.92041
1 18.24 2.40037 7.68037
1 16.4801 4.16041 7.6804
1 20 2.40037 5.92037
1 21.7599 4.16041 5.92041
1 21.76 2.40037 7.68037
1 20 4.16042 7.68042
1 23.5199 2.40036 5.92035
1 25.2799 4.16038 5.92036
1 25.2799 2.40036 7.68032
1 23.5199 4.16041 7.6804
1 27.0399 2.40034 5.9203
1 28.7999 4.16032 5.92028
1 28.7999 2.40033 7.68023
1 27.0399 4.16037 7.68031
1 30.5599 2.4003 5.92022
1 32.32 4.16024 5.92019
1 32.32 2.40029 7.68015
1 30.5599 4.16029 7.6802
1 34.0801 2.40027 5.92016
1 35.8402 4.16019 5.92014
1 35.8402 2.40026 7.68009
1 34.0801 4.16021 7.68011
1 2.39972 5.92012 5.92012
1 4.15981 7.68008 5.92012
1 4.15981 5.92012 7.68008
1 2.39972 7.68005 7.68005
1 5.91992 5.92016 5.92016
1 7.67999 7.68015 5.9202
1 7.67999 5.9202 7.68015
1 5.91987 7.68009 7.68009
1 9.44008 5.92025 5.92025
1 11.2001 7.68028 5.92032
1 11.2001 5.92032 7.68028
1 9.44004 7.68021 7.68021
1 12.9602 5.92035 5.92035
1 14.7202 7.6804 5.92043
1 14.7202 5.92043 7.6804
1 12.9602 7.68037 7.68037
1 16.4801 5.92043 5.92043
1 18.2401 7.68048 5.92048
1 18.2401 5.92048 7.68048
1 16.4802 7.6805 7.6805
1 20 5.92046 5.92046
1 21.7599 7.68048 5.92048
1 21.7599 5.92048 7.68048
1 20 7.68058 7.68058
1 23.5199 5.92043 5.92043
1 25.2798 7.6804 5.92043
1 25.2798 5.92043 7.6804
1 23.5198 7.6805 7.6805
1 27.0398 5.92035 5.92035
1 28.7999 7.68028 5.92032
1 28.7999 5.92032 7.68028
1 27.0398 7.68037 7.68037
1 30.5599 5.92025 5.92025
1 32.32 7.68015 5.9202
1 32.32 5.9202 7.68015
1 30.56 7.68021 7.68021
1 34.0801 5.92016 5.92016
1 35.8402 7.68008 5.92012
1 35.8402 5.92012 7.68008
1 34.0801 7.68009 7.68009
1 2.39972 9.44003 5.9201
1 4.15978 11.2 5.9201
1 4.15977 9.44002 7.68005
1 2.39972 11.2 7.68002
1 5.91987 9.44006 5.92014
1 7.67993 11.2001 5.92019
1 7.67992 9.44009 7.68013
1 5.9198 11.2 7.68006
1 9.44004 9.44017 5.92026
1 11.2001 11.2002 5.92036
1 11.2001 9.44025 7.6803
1 9.43997 11.2001 7.68021
1 12.9602 9.44032 5.9204
1 14.7202 11.2004 5.92048
1 14.7202 9.44044 7.68049
1 12.9602 11.2003 7.68044
1 16.4801 9.44045 5.92049
1 18.2401 11.2005 5.92049
1 18.2401 9.44058 7.6806
1 16.4802 11.2005 7.68062
1 20 9.44049 5.92048
1 21.7599 11.2005 5.92049
1 21.7599 9.44058 7.6806
1 20 11.2006 7.68057
1 23.5199 9.44045 5.92049
1 25.2798 11.2004 5.92048
1 25.2798 9.44044 7.68049
1 23.5198 11.2005 7.68062
1 27.0398 9.44032 5.9204
1 28.7999 11.2002 5.92036
1 28.7999 9.44025 7.6803
1 27.0398 11.2003 7.68044
1 30.56 9.44017 5.92026
1 32.3201 11.2001 5.92019
1 32.3201 9.44009 7.68013
1 30.56 11.2001 7.68021
1 34.0801 9.44006 5.92014
1 35.8402 11.2 5.9201
1 35.8402 9.44002 7.68005
1 34.0802 11.2 7.68006
1 2.39972 12.96 5.92007
1 4.15975 14.72 5.92008
1 4.15973 12.96 7.68001
1 2.39972 14.72 7.68
1 5.91983 12.96 5.92012
1 7.67988 14.72 5.92019
1 7.67983 12.96 7.6801
1 5.91973 14.72 7.68003
1 9.43999 12.9601 5.92028
1 11.2001 14.7201 5.9204
1 11.2 12.9602 7.68034
1 9.4399 14.7201 7.68021
1 12.9601 12.9602 5.92046
1 14.7201 14.7202 5.92048
1 14.7202 12.9604 7.68061
1 12.9601 14.7202 7.68055
1 16.4801 12.9604 5.92048
1 18.24 14.7203 5.92046
1 18.2401 12.9605 7.68061
1 16.4801 14.7204 7.68062
1 20 12.9604 5.92049
1 21.76 14.7203 5.92046
1 21.7599 12.9605 7.68061
1 20 14.7205 7.68062
1 23.5199 12.9604 5.92048
1 25.2799 14.7202 5.92048
1 25.2798 12.9604 7.68061
1 23.5199 14.7204 7.68062
1 27.0399 12.9602 5.92046
1 28.7999 14.7201 5.9204
1 28.8 12.9602 7.68034
1 27.0399 14.7202 7.68055
1 30.56 12.9601 5.92028
1 32.3201 14.72 5.92019
1 32.3202 12.96 7.6801
1 30.5601 14.7201 7.68021
1 34.0802 12.96 5.92012
1 35.8402 14.72 5.92008
1 35.8403 12.96 7.68001
1 34.0803 14.72 7.68003
1 2.39972 16.48 5.92006
1 4.15974 18.24 5.92006
1 4.1597 16.48 7.68
1 2.39972 18.24 7.68
1 5.91979 16.48 5.92011
1 7.67987 18.24 5.9202
1 7.67976 16.48 7.68008
1 5.91969 18.24 7.68001
1 9.43997 16.48 5.9203
1 11.2 18.24 5.92041
1 11.2 16.4801 7.68041
1 9.4399 18.24 7.68025
1 12.9601 16.4801 5.92047
1 14.7201 18.24 5.9205
1 14.7201 16.4801 7.68063
1 12.9601 18.24 7.68056
1 16.48 16.4802 5.92047
1 18.24 18.24 5.92044
1 18.2401 16.4803 7.68059
1 16.4801 18.24 7.68066
1 20 16.4802 5.92042
1 21.76 18.24 5.92044
1 21.7599 16.4803 7.68059
1 20 18.24 7.68056
1 23.52 16.4802 5.92047
1 25.2799 18.24 5.9205
1 25.2799 16.4801 7.68063
1 23.5199 18.24 7.68066
1 27.0399 16.4801 5.92047
1 28.8 18.24 5.92041
1 28.8 16.4801 7.68041
1 27.0399 18.24 7.68056
1 30.56 16.48 5.9203
1 32.3201 18.24 5.9202
1 32.3202 16.48 7.68008
1 30.5601 18.24 7.68025
1 34.0802 16.48 5.92011
1 35.8403 18.24 5.92006
1 35.8403 16.48 7.68
1 34.0803 18.24 7.68001
1 2.39972 20 5.92006
1 4.15975 21.76 5.92008
1 4.1597 20 7.68
1 2.39972 21.76 7.68001
1 5.91979 20 5.92011
1 7.67988 21.76 5.92019
1 7.67975 20 7.68007
1 5.91972 21.76 7.68003
1 9.43998 20 5.92032
1 11.2001 21.7599 5.92047
1 11.2001 19.9999 7.68046
1 9.43988 21.7599 7.68021
1 12.9601 19.9999 5.9205
1 14.7201 21.7598 5.92055
1 14.7202 19.9999 7.68069
1 12.9602 21.7598 7.6807
1 16.4801 19.9999 5.9205
1 18.24 21.7597 5.92053
1 18.2401 19.9998 7.68065
1 16.4802 21.7597 7.68074
1 20 19.9999 5.92045
1 21.76 21.7597 5.92053
1 21.7599 19.9998 7.68065
1 20 21.7595 7.68075
1 23.5199 19.9999 5.9205
1 25.2799 21.7598 5.92055
1 25.2798 19.9999 7.68069
1 23.5198 21.7597 7.68074
1 27.0399 19.9999 5.9205
1 28.7999 21.7599 5.92047
1 28.7999 19.9999 7.68046
1 27.0398 21.7598 7.6807
1 30.56 20 5.92032
1 32.3201 21.76 5.92019
1 32.3203 20 7.68007
1 30.5601 21.7599 7.68021
1 34.0802 20 5.92011
1 35.8403 21.76 5.92008
1 35.8403 20 7.68
1 34.0803 21.76 7.68003
1 2.39972 23.52 5.92008
1 4.15977 25.28 5.92009
1 4.15972 23.52 7.68002
1 2.39972 25.28 7.68003
1 5.91981 23.52 5.92012
1 7.67991 25.2799 5.92019
1 7.67979 23.52 7.68009
1 5.91977 25.28 7.68005
1 9.44001 23.5199 5.92031
1 11.2001 25.2798 5.92042
1 11.2001 23.5198 7.68041
1 9.43993 25.2799 7.6802
1 12.9602 23.5197 5.92058
1 14.7202 25.2796 5.92064
1 14.7203 23.5195 7.68087
1 12.9602 25.2796 7.68058
1 16.4801 23.5196 5.92059
1 18.2401 25.2795 5.92064
1 18.2401 23.5194 7.68082
1 16.4803 25.2793 7.68093
1 20 23.5196 5.92059
1 21.7599 25.2795 5.92064
1 21.7599 23.5194 7.68082
1 20 25.2792 7.68086
1 23.5199 23.5196 5.92059
1 25.2798 25.2796 5.92064
1 25.2797 23.5195 7.68087
1 23.5197 25.2793 7.68093
1 27.0398 23.5197 5.92058
1 28.7999 25.2798 5.92042
1 28.7999 23.5198 7.68041
1 27.0398 25.2796 7.68058
1 30.56 23.5199 5.92031
1 32.3201 25.2799 5.92019
1 32.3202 23.52 7.68009
1 30.5601 25.2799 7.6802
1 34.0802 23.52 5.92012
1 35.8402 25.28 5.92009
1 35.8403 23.52 7.68002
1 34.0802 25.28 7.68005
1 2.39972 27.04 5.92009
1 4.15979 28.8 5.92011
1 4.15975 27.04 7.68004
1 2.39972 28.8 7.68005
1 5.91985 27.04 5.92013
1 7.67996 28.7999 5.92018
1 7.67987 27.0399 7.6801
1 5.91983 28.8 7.68007
1 9.44003 27.0398 5.92027
1 11.2001 28.7998 5.92033
1 11.2001 27.0398 7.6803
1 9.43999 28.7999 7.68016
1 12.9602 27.0397 5.92049
1 14.7202 28.7996 5.9205
1 14.7203 27.0395 7.68063
1 12.9602 28.7997 7.68036
1 16.4802 27.0395 5.92066
1 18.2401 28.7994 5.92061
1 18.2402 27.0392 7.68087
1 16.4802 28.7995 7.68057
1 20 27.0394 5.92065
1 21.7599 28.7994 5.92061
1 21.7598 27.0392 7.68087
1 20 28.7993 7.68071
1 23.5198 27.0395 5.92066
1 25.2798 28.7996 5.9205
1 25.2797 27.0395 7.68063
1 23.5198 28.7995 7.68057
1 27.0398 27.0397 5.92049
1 28.7999 28.7998 5.92033
1 28.7999 27.0398 7.6803
1 27.0398 28.7997 7.68036
1 30.56 27.0398 5.92027
1 32.32 28.7999 5.92018
1 32.3201 27.0399 7.6801
1 30.56 28.7999 7.68016
1 34.0801 27.04 5.92013
1 35.8402 28.8 5.92011
1 35.8402 27.04 7.68004
1 34.0802 28.8 7.68007
1 2.39972 30.56 5.92011
1 4.15981 32.3199 5.92012
1 4.15979 30.56 7.68006
1 2.39972 32.3199 7.68007
1 5.91989 30.5599 5.92014
1 7.67999 32.3199 5.92017
1 7.67993 30.5599 7.68011
1 5.91988 32.3199 7.68009
1 9.44006 30.5598 5.92022
1 11.2001 32.3198 5.92025
1 11.2001 30.5598 7.68021
1 9.44003 32.3198 7.68015
1 12.9602 30.5597 5.92035
1 14.7202 32.3197 5.92034
1 14.7202 30.5597 7.68035
1 12.9601 32.3198 7.68024
1 16.4801 30.5596 5.92046
1 18.2401 32.3197 5.92038
1 18.2401 30.5596 7.68044
1 16.4801 32.3197 7.68032
1 20 30.5595 5.92051
1 21.7599 32.3197 5.92038
1 21.7599 30.5596 7.68044
1 20 32.3197 7.68033
1 23.5199 30.5596 5.92046
1 25.2798 32.3197 5.92034
1 25.2798 30.5597 7.68035
1 23.5199 32.3197 7.68032
1 27.0398 30.5597 5.92035
1 28.7999 32.3198 5.92025
1 28.7999 30.5598 7.68021
1 27.0399 32.3198 7.68024
1 30.5599 30.5598 5.92022
1 32.32 32.3199 5.92017
1 32.3201 30.5599 7.68011
1 30.56 32.3198 7.68015
1 34.0801 30.5599 5.92014
1 35.8402 32.3199 5.92012
1 35.8402 30.56 7.68006
1 34.0801 32.3199 7.68009
1 2.39972 34.0799 5.92013
1 4.15983 35.8398 5.92014
1 4.15981 34.0799 7.68008
1 2.39972 35.8398 7.68008
1 5.91992 34.0799 5.92015
1 7.68002 35.8398 5.92018
1 7.67998 34.0799 7.68012
1 5.91991 35.8398 7.68011
1 9.44008 34.0798 5.92021
1 11.2001 35.8398 5.92025
1 11.2001 34.0798 7.6802
1 9.44006 35.8398 7.68017
1 12.9601 34.0798 5.92028
1 14.7201 35.8398 5.92031
1 14.7201 34.0798 7.68027
1 12.9601 35.8398 7.68025
1 16.4801 34.0798 5.92033
1 18.2401 35.8398 5.92034
1 18.24 34.0798 7.68031
1 16.4801 35.8398 7.68031
1 20 34.0798 5.92034
1 21.7599 35.8398 5.92034
1 21.76 34.0798 7.68031
1 20 35.8398 7.68034
1 23.5199 34.0798 5.92033
1 25.2799 35.8398 5.92031
1 25.2799 34.0798 7.68027
1 23.5199 35.8398 7.68031
1 27.0399 34.0798 5.92028
1 28.7999 35.8398 5.92025
1 28.7999 34.0798 7.6802
1 27.0399 35.8398 7.68025
1 30.5599 34.0798 5.92021
1 32.32 35.8398 5.92018
1 32.32 34.0799 7.68012
1 30.5599 35.8398 7.68017
1 34.0801 34.0799 5.92015
1 35.8402 35.8398 5.92014
1 35.8402 34.0799 7.68008
1 34.0801 35.8398 7.68011
1 2.39972 2.40025 9.44004
1 4.15981 4.16018 9.44005
1 4.1598 2.40026 11.2
1 2.39972 4.16017 11.2
1 5.9199 2.40027 9.44007
1 7.67998 4.16025 9.44011
1 7.67996 2.4003 11.2001
1 5.91988 4.16021 11.2
1 9.44005 2.40032 9.44015
1 11.2001 4.16035 9.44023
1 11.2001 2.40035 11.2002
1 9.44003 4.16031 11.2001
1 12.9601 2.40036 9.44025
1 14.7201 4.16041 9.44034
1 14.7201 2.40035 11.2003
1 12.9601 4.16039 11.2003
1 16.4801 2.40036 9.44033
1 18.2401 4.16042 9.44041
1 18.24 2.40035 11.2003
1 16.4801 4.16041 11.2003
1 20 2.40036 9.44037
1 21.7599 4.16042 9.44041
1 21.76 2.40035 11.2003
1 20 4.16041 11.2004
1 23.5199 2.40036 9.44033
1 25.2799 4.16041 9.44034
1 25.2799 2.40035 11.2003
1 23.5199 4.16041 11.2003
1 27.0399 2.40036 9.44025
1 28.7999 4.16035 9.44023
1 28.7999 2.40035 11.2002
1 27.0399 4.16039 11.2003
1 30.56 2.40032 9.44015
1 32.32 4.16025 9.44011
1 32.32 2.4003 11.2001
1 30.56 4.16031 11.2001
1 34.0801 2.40027 9.44007
1 35.8402 4.16018 9.44005
1 35.8402 2.40026 11.2
1 34.0801 4.16021 11.2
1 2.39972 5.9201 9.44003
1 4.15977 7.68005 9.44002
1 4.15978 5.9201 11.2
1 2.39972 7.68002 11.2
1 5.91987 5.92014 9.44006
1 7.67992 7.68013 9.44009
1 7.67993 5.92019 11.2001
1 5.9198 7.68006 11.2
1 9.44004 5.92026 9.44017
1 11.2001 7.6803 9.44025
1 11.2001 5.92036 11.2002
1 9.43997 7.68021 11.2001
1 12.9602 5.9204 9.44032
1 14.7202 7.68049 9.44044
1 14.7202 5.92048 11.2004
1 12.9602 7.68044 11.2003
1 16.4801 5.92049 9.44045
1 18.2401 7.6806 9.44058
1 18.2401 5.92049 11.2005
1 16.4802 7.68062 11.2005
1 20 5.92048 9.44049
1 21.7599 7.6806 9.44058
1 21.7599 5.92049 11.2005
1 20 7.68057 11.2006
1 23.5199 5.92049 9.44045
1 25.2798 7.68049 9.44044
1 25.2798 5.92048 11.2004
1 23.5198 7.68062 11.2005
1 27.0398 5.9204 9.44032
1 28.7999 7.6803 9.44025
1 28.7999 5.92036 11.2002
1 27.0398 7.68044 11.2003
1 30.56 5.92026 9.44017
1 32.3201 7.68013 9.44009
1 32.3201 5.92019 11.2001
1 30.56 7.68021 11.2001
1 34.0801 5.92014 9.44006
1 35.8402 7.68005 9.44002
1 35.8402 5.9201 11.2
1 34.0802 7.68006 11.2
1 2.39972 9.43999 9.43999
1 4.15972 11.2 9.43998
1 4.15972 9.43998 11.2
1 2.39972 11.2 11.2
1 5.91979 9.44002 9.44002
1 7.67979 11.2 9.44004
1 7.67979 9.44004 11.2
1 5.91968 11.2 11.2
1 9.43995 9.44015 9.44015
1 11.2 11.2002 9.44024
1 11.2 9.44024 11.2002
1 9.43977 11.2 11.2
1 12.9602 9.44037 9.44037
1 14.7203 11.2005 9.44056
1 14.7203 9.44056 11.2005
1 12.9601 11.2003 11.2003
1 16.4803 9.44061 9.44061
1 18.2402 11.2007 9.44079
1 18.2402 9.44079 11.2007
1 16.4804 11.2007 11.2007
1 20 9.44083 9.44083
1 21.7598 11.2007 9.44079
1 21.7598 9.44079 11.2007
1 20 11.2014 11.2014
1 23.5197 9.44061 9.44061
1 25.2797 11.2005 9.44056
1 25.2797 9.44056 11.2005
1 23.5196 11.2007 11.2007
1 27.0398 9.44037 9.44037
1 28.8 11.2002 9.44024
1 28.8 9.44024 11.2002
1 27.0399 11.2003 11.2003
1 30.56 9.44015 9.44015
1 32.3202 11.2 9.44004
1 32.3202 9.44004 11.2
1 30.5602 11.2 11.2
1 34.0802 9.44002 9.44002
1 35.8403 11.2 9.43998
1 35.8403 9.43998 11.2
1 34.0803 11.2 11.2
1 2.39972 12.96 9.43996
1 4.15968 14.72 9.43996
1 4.15967 12.9599 11.1999
1 2.39972 14.72 11.2
1 5.91969 12.96 9.43998
1 7.67966 14.72 9.43999
1 7.67961 12.9599 11.1999
1 5.91959 14.7199 11.1999
1 9.43981 12.96 9.4401
1 11.1999 14.7201 9.44026
1 11.1998 12.9601 11.2001
1 9.43954 14.7199 11.1999
1 12.9601 12.9603 9.44045
1 14.7203 14.7204 9.44081
1 14.7203 12.9604 11.2006
1 12.9599 14.7201 11.2003
1 16.4803 12.9606 9.44084
1 18.2401 14.7206 9.44085
1 18.2405 12.9609 11.2011
1 16.4805 14.7207 11.2013
1 20 12.9607 9.44066
1 21.7599 14.7206 9.44085
1 21.7595 12.9609 11.2011
1 20 14.721 11.2008
1 23.5197 12.9606 9.44084
1 25.2797 14.7204 9.44081
1 25.2797 12.9604 11.2006
1 23.5195 14.7207 11.2013
1 27.0399 12.9603 9.44045
1 28.8001 14.7201 9.44026
1 28.8002 12.9601 11.2001
1 27.0401 14.7201 11.2003
1 30.5602 12.96 9.4401
1 32.3203 14.72 9.43999
1 32.3204 12.9599 11.1999
1 30.5605 14.7199 11.1999
1 34.0803 12.96 9.43998
1 35.8403 14.72 9.43996
1 35.8403 12.9599 11.1999
1 34.0804 14.7199 11.1999
1 2.39972 16.48 9.43996
1 4.15967 18.24 9.43997
1 4.15966 16.48 11.2
1 2.39972 18.24 11.2
1 5.91962 16.48 9.43995
1 7.67957 18.24 9.43994
1 7.67948 16.4799 11.1999
1 5.91959 18.24 11.1999
1 9.43969 16.48 9.44006
1 11.2 18.24 9.44039
1 11.1996 16.48 11.2
1 9.43932 18.2399 11.1998
1 12.9601 16.4801 9.44062
1 14.7203 18.24 9.44079
1 14.7203 16.4803 11.201
1 12.9602 18.2399 11.2008
1 16.4802 16.4803 9.44091
1 18.2401 18.24 9.44093
1 18.2402 16.4806 11.2016
1 16.4804 18.24 11.2012
1 20 16.4805 9.44088
1 21.7599 18.24 9.44093
1 21.7598 16.4806 11.2016
1 20 18.24 11.2015
1 23.5198 16.4803 9.44091
1 25.2797 18.24 9.44079
1 25.2797 16.4803 11.201
1 23.5196 18.24 11.2012
1 27.0399 16.4801 9.44062
1 28.8 18.24 9.44039
1 28.8004 16.48 11.2
1 27.0398 18.2399 11.2008
1 30.5603 16.48 9.44006
1 32.3204 18.24 9.43994
1 32.3205 16.4799 11.1999
1 30.5607 18.2399 11.1998
1 34.0804 16.48 9.43995
1 35.8403 18.24 9.43997
1 35.8403 16.48 11.2
1 34.0804 18.24 11.1999
1 2.39972 20 9.43998
1 4.15968 21.76 9.43998
1 4.15966 20 11.2
1 2.39972 21.76 11.2
1 5.91963 20 9.43996
1 7.67963 21.76 9.43998
1 7.6795 20 11.1999
1 5.91961 21.76 11.2
1 9.43965 19.9999 9.44004
1 11.1999 21.7598 9.44027
1 11.1995 19.9998 11.2
1 9.43949 21.7599 11.1999
1 12.9602 19.9998 9.44075
1 14.7205 21.7595 9.44119
1 14.7206 19.9994 11.2014
1 12.9598 21.7596 11.2003
1 16.4803 19.9998 9.441
1 18.2401 21.7593 9.44108
1 18.2403 19.9994 11.2017
1 16.4809 21.7589 11.2022
1 20 19.9996 9.44098
1 21.7599 21.7593 9.44108
1 21.7597 19.9994 11.2017
1 20 21.7588 11.2013
1 23.5197 19.9998 9.441
1 25.2795 21.7595 9.44119
1 25.2794 19.9994 11.2014
1 23.5191 21.7589 11.2022
1 27.0398 19.9998 9.44075
1 28.8001 21.7598 9.44027
1 28.8005 19.9998 11.2
1 27.0402 21.7596 11.2003
1 30.5603 19.9999 9.44004
1 32.3204 21.76 9.43998
1 32.3205 20 11.1999
1 30.5605 21.7599 11.1999
1 34.0804 20 9.43996
1 35.8403 21.76 9.43998
1 35.8403 20 11.2
1 34.0804 21.76 11.2
1 2.39972 23.52 9.43999
1 4.15971 25.28 9.43999
1 4.15968 23.5201 11.2
1 2.39972 25.2801 11.2
1 5.91968 23.52 9.43999
1 7.67973 25.28 9.44001
1 7.6796 23.52 11.1999
1 5.91968 25.28 11.2
1 9.43974 23.5199 9.44006
1 11.1999 25.2798 9.4402
1 11.1996 23.5198 11.2
1 9.43966 25.2799 11.1999
1 12.9602 23.5196 9.44058
1 14.7203 25.2794 9.44079
1 14.7203 23.5193 11.2008
1 12.9599 25.2797 11.2002
1 16.4805 23.5191 9.4414
1 18.2403 25.2788 9.44136
1 18.2407 23.5182 11.2024
1 16.4805 25.2791 11.201
1 20 23.519 9.44111
1 21.7597 25.2788 9.44136
1 21.7593 23.5182 11.2024
1 20 25.2778 11.2022
1 23.5195 23.5191 9.4414
1 25.2797 25.2794 9.44079
1 25.2797 23.5193 11.2008
1 23.5195 25.2791 11.201
1 27.0398 23.5196 9.44058
1 28.8001 25.2798 9.4402
1 28.8004 23.5198 11.2
1 27.0401 25.2797 11.2002
1 30.5603 23.5199 9.44006
1 32.3203 25.28 9.44001
1 32.3204 23.52 11.1999
1 30.5603 25.2799 11.1999
1 34.0803 23.52 9.43999
1 35.8403 25.28 9.43999
1 35.8403 23.5201 11.2
1 34.0803 25.28 11.2
1 2.39972 27.04 9.44
1 4.15975 28.8 9.44001
1 4.15972 27.04 11.2
1 2.39972 28.8 11.2
1 5.91975 27.04 9.44001
1 7.67983 28.7999 9.44003
1 7.67972 27.04 11.2
1 5.91975 28.8 11.2
1 9.43985 27.0399 9.44007
1 11.2 28.7998 9.44014
1 11.1998 27.0399 11.2
1 9.43981 28.7999 11.2
1 12.9601 27.0397 9.44032
1 14.7202 28.7996 9.44035
1 14.7201 27.0396 11.2003
1 12.96 28.7998 11.2001
1 16.4803 27.0393 9.44076
1 18.2401 28.7995 9.44053
1 18.2403 27.0393 11.2007
1 16.4801 28.7997 11.2002
1 20 27.0389 9.44114
1 21.7599 28.7995 9.44053
1 21.7597 27.0393 11.2007
1 20 28.7998 11.2003
1 23.5197 27.0393 9.44076
1 25.2798 28.7996 9.44035
1 25.2799 27.0396 11.2003
1 23.5199 28.7997 11.2002
1 27.0399 27.0397 9.44032
1 28.8 28.7998 9.44014
1 28.8002 27.0399 11.2
1 27.04 28.7998 11.2001
1 30.5601 27.0399 9.44007
1 32.3202 28.7999 9.44003
1 32.3203 27.04 11.2
1 30.5602 28.7999 11.2
1 34.0802 27.04 9.44001
1 35.8403 28.8 9.44001
1 35.8403 27.04 11.2
1 34.0802 28.8 11.2
1 2.39972 30.56 9.44002
1 4.15978 32.3199 9.44003
1 4.15975 30.56 11.2
1 2.39972 32.32 11.2
1 5.91982 30.56 9.44003
1 7.67991 32.3199 9.44006
1 7.67982 30.56 11.2
1 5.91982 32.3199 11.2
1 9.43994 30.5599 9.44008
1 11.2 32.3198 9.44013
1 11.1999 30.5599 11.2
1 9.43992 32.3199 11.2
1 12.9601 30.5598 9.44019
1 14.7201 32.3198 9.44022
1 14.7201 30.5598 11.2001
1 12.96 32.3198 11.2001
1 16.4801 30.5597 9.4403
1 18.24 32.3198 9.44028
1 18.24 30.5598 11.2002
1 16.48 32.3198 11.2002
1 20 30.5597 9.44033
1 21.76 32.3198 9.44028
1 21.76 30.5598 11.2002
1 20 32.3198 11.2003
1 23.5199 30.5597 9.4403
1 25.2799 32.3198 9.44022
1 25.2799 30.5598 11.2001
1 23.52 32.3198 11.2002
1 27.0399 30.5598 9.44019
1 28.8 32.3198 9.44013
1 28.8001 30.5599 11.2
1 27.04 32.3198 11.2001
1 30.5601 30.5599 9.44008
1 32.3201 32.3199 9.44006
1 32.3202 30.56 11.2
1 30.5601 32.3199 11.2
1 34.0802 30.56 9.44003
1 35.8402 32.3199 9.44003
1 35.8402 30.56 11.2
1 34.0802 32.3199 11.2
1 2.39972 34.0799 9.44004
1 4.15981 35.8398 9.44005
1 4.15979 34.0799 11.2
1 2.39972 35.8398 11.2
1 5.91988 34.0799 9.44006
1 7.67997 35.8398 9.4401
1 7.67991 34.0799 11.2
1 5.91988 35.8398 11.2
1 9.44001 34.0799 9.44011
1 11.2001 35.8398 9.44018
1 11.2 34.0798 11.2001